<VTKFile type="UnstructuredGrid" version="0.1" byte_order="LittleEndian">
  <UnstructuredGrid>
    <Piece NumberOfPoints="301" NumberOfCells="300">
      <PointData Scalars="T1_0">
        <DataArray type="Float32" Name="T1_0" format="ascii" RangeMin="0" RangeMax="0">
          0 0 0 0 0 0
          0 0 0 0 0 0
          0 0 0 0 0 0
          0 0 0 0 0 0
          0 0 0 0 0 0
          0 0 0 0 0 0
          0 0 0 0 0 0
          0 0 0 0 0 0
          0 0 0 0 0 0
          0 0 0 0 0 0
          0 0 0 0 0 0
          0 0 0 0 0 0
          0 0 0 0 0 0
          0 0 0 0 0 0
          0 0 0 0 0 0
          0 0 0 0 0 0
          0 0 0 0 0 0
          0 0 0 0 0 0
          0 0 0 0 0 0
          0 0 0 0 0 0
          0 0 0 0 0 0
          0 0 0 0 0 0
          0 0 0 0 0 0
          0 0 0 0 0 0
          0 0 0 0 0 0
          0 0 0 0 0 0
          0 0 0 0 0 0
          0 0 0 0 0 0
          0 0 0 0 0 0
          0 0 0 0 0 0
          0 0 0 0 0 0
          0 0 0 0 0 0
          0 0 0 0 0 0
          0 0 0 0 0 0
          0 0 0 0 0 0
          0 0 0 0 0 0
          0 0 0 0 0 0
          0 0 0 0 0 0
          0 0 0 0 0 0
          0 0 0 0 0 0
          0 0 0 0 0 0
          0 0 0 0 0 0
          0 0 0 0 0 0
          0 0 0 0 0 0
          0 0 0 0 0 0
          0 0 0 0 0 0
          0 0 0 0 0 0
          0 0 0 0 0 0
          0 0 0 0 0 0
          0 0 0 0 0 0
          0
        </DataArray>
        <DataArray type="Float32" Name="T1_1" format="ascii" RangeMin="0" RangeMax="0.015109799802">
          0.0016848200466 0.0022108899429 0.013189599849 0.013073000126 0.01003990043 0.010016400367
          0 0 0 0 0.010474000126 0.010439299978
          0.014898899943 0.014855699614 0.01509920042 0.015088000335 0 0
          0.010041699745 0.010292899795 0.0096277398989 0.0096109397709 0.0097501501441 0.0097320303321
          0 0 0.0073432000354 0.0076855397783 0.013996900059 0.013894800097
          0.0098254196346 0.0098061496392 0 0 0.013309599832 0.015106500126
          0 0 0.013434000313 0 0 0.012542099692
          0.012445599772 0.0097871897742 0.012850600295 0.012744599953 0 0
          0.014887600206 0.014927799813 0.012641799636 0.010789900087 0.01074630022 0.013866200112
          0.013969699852 0 0 0 0 0
          0 0 0 0 0 0
          0 0.01092880033 0.01088109985 0.0086456900463 0.0089445197955 0.014756900258
          0.014701100066 0.0095942495391 0.014093999751 0.0092764301226 0.0092652300373 0.010977899656
          0.014640999958 0.014576500282 0.0094630597159 0.0094467001036 0 0
          0.011847799644 0.011772500351 0 0 0 0.010405600071
          0.010703899898 0.010662799701 0.010372900404 0 0 0.01443419978
          0.014356199652 0.012528199703 0.01268870011 0.010535299778 0.0095776701346 0.014995999634
          0.015023999847 0.01027970016 0.010250300169 0 0 0
          0 0 0.0036899200641 0.0041515198536 0.012173299678 0.012088100426
          0.0093972804025 0.0093806302175 0.0083364602178 0 0 0
          0 0.011493599974 0.011428999715 0 0 0.014808399603
          0.0054485900328 0.0058531500399 0.0093299802393 0.0093126697466 0.011246900074 0.011189799756
          0 0.015003999695 0.014972999692 0.012960099615 0.012351999991 0.0093469796702
          0.013643699698 0.013757600449 0 0 0.010509599932 0.00971414987
          0.014068200253 0.014161700383 0.01162870042 0.011560100131 0.011080600321 0.011028500274
          0.015048099682 0.015068200417 0.014186199754 0.014558300376 0.014623899944 0.0096790399402
          0.009661779739 0.01508430019 0.009363880381 0 0 0
          0.0050304098986 0.0098649803549 0.0098450202495 0.010064000264 0.0095611698925 0
          0 0.0096965003759 0.0096446899697 0.011366499588 0.011305799708 0
          0.014937999658 0.0092957504094 0.0095121804625 0.0097815897316 0.015072899871 0.015053899959
          0 0 0.013787499629 0.01008869987 0.0094793904573 0.01200679969
          0.012187399901 0.010193699971 0.010166400112 0 0 0.011925400235
          0 0 0.0094138197601 0.014250399545 0.009544740431 0.0095283696428
          0 0 0 0 0.01076919958 0.010994800366
          0.011624399573 0.011819199659 0.015096600167 0 0 0
          0.012842999771 0 0 0.014488199726 0 0
          0 0 0 0.0011413500179 0.010834800079 0.015109799802
          0.006623050198 0.006989160087 0.011699499562 0.014843299985 0.011134400032 0.01142229978
          0.0098853101954 0 0.0080165099353 0 0 0
          0 0.012990999967 0.013132999651 0.0062445099466 0.014963899739 0
          0.010114000179 0.0097685297951 0.014507600106 0 0.0099487695843 0.0099271899089
          0 0 0.014334299602 0.014413500205 0.014794800431 0
          0.0094302901998 0.010340999812 0.010309900157 0 0 0
          0.0032129399478 0.0099060395733 0 0.002720090095 0 0
          0 0.01013990026 0.015030900016 0.015104900114 0 0
          0 0.0092332595959 0.014685199596 0.014742200263 0 0.012005499564
          0.0099933296442 0 0.010622800328 0.012361099944 0.013399600051 0.01352440007
          0.0095120295882 0.0099708102643 0.0045981998555 0.012261300348 0.00057992798975 0
          0.01367510017 0.014273599721 0.01355720032 0.0094957100227 0.011212499812 0
          0.010583999567 0.010546299629 0.010221599601 0 0.015109299682 0
          0.01326919999
        </DataArray>
        <DataArray type="Float32" Name="T1_2" format="ascii" RangeMin="-0.0011853700271" RangeMax="0.00065848400118">
          -0.00054789200658 -0.00068049097899 0.00041742200847 0.00046045499039 0.00043360999553 0.00042885899893
          0 0 0 0 0.00051684601931 0.00051058002282
          -9.1966401669e-05 -8.6981199274e-05 -0.00012177500321 -0.0001181300031 0 0
          -0.00099740794394 -0.00096898898482 0.00034861100721 0.0003450899967 0.00037417100975 0.00037039900781
          0 0 -0.0011804200476 -0.0011710399995 8.795769827e-05 0.00012126399815
          0.00038978501107 0.00038579700049 0 0 0.00036788798752 -0.00012562000484
          0 0 0.00031071799458 0 0 0.00059831200633
          0.00061410397757 0.00038186699385 0.00052928202786 0.00055633799639 0 0
          -0.00020365900127 -0.00019417100702 0.00057919498067 0.00056974199833 0.00056294800015 -0.00041099201189
          -0.00039126799675 0 0 0 0 0
          0 0 0 0 0 0
          0 0.00059011002304 0.00058334501227 -0.001122059999 -0.0011004300322 -7.4795098044e-05
          -6.7255903559e-05 0.00034159200732 5.9024299844e-05 0.00027474100352 0.00027238301118 0.00059681897983
          -5.8495399571e-05 -4.8293299187e-05 0.00031403001049 0.00031058798777 0 0
          0.00065848400118 0.0006583139766 0 0 0 0.00050441198982
          0.00055618101032 0.00054945598822 0.0004983440158 0 0 -2.2556800104e-05
          -6.4467299126e-06 -0.00064940599259 -0.00062244298169 -0.00093997502699 0.00033811299363 -0.00017706099607
          -0.000169395993 0.00048076201347 0.00047511101002 0 0 0
          0 0 -0.00096389098326 -0.0010270599741 0.00064507097704 0.00065092602745
          0.00030018700636 0.00029668299248 -0.0011413400061 0 0 0
          0 0.00064823398134 0.0006439529825 0 0 -8.1310798123e-05
          -0.0011458899826 -0.0011663599871 0.00028601801023 0.00028237199876 0.00062833499396 0.0006224369863
          0 -0.00010417999874 -0.00010044300143 0.0004975029733 0.00062694400549 0.00028959801421
          -0.00045276700985 -0.000431493012 0 0 0.00052320497343 0.00036667200038
          -0.00037232099567 -0.00035415199818 0.00065489899134 0.00065191602334 0.00060994498199 0.00060344202211
          -0.00016229100584 -0.00015571899712 3.3947500924e-05 -0.00027479798882 -0.00026117399102 0.00035934298648
          0.00035573399509 -0.00014965099399 0.00029315499705 0 0 0
          -0.0011166599579 0.00039795201155 0.00039383600233 0.0004384519998 0.00033465100569 0
          0 0.00036298800842 0.00035215800744 0.00063915801002 0.00063392898301 0
          -9.6410301921e-05 0.00027881001006 -0.0010515799513 -0.0010250200285 -0.00011462099792 -0.00011117899703
          0 0 0.00015951799287 0.00044338899897 0.00031746499008 -0.00073359097587
          -0.00070503202733 0.00046412600204 0.00045878998935 0 0 0.00065742799779
          0 0 0.00030367000727 -0.00033675599843 0.00033120100852 0.00032776099397
          0 0 0 0 -0.00091055600205 -0.00088089698693
          -0.00079187302617 -0.00076256302418 -0.00014405400725 0 0 0
          -0.00059610500466 0 0 -0.00028915799339 0 0
          0 0 0 -0.00039221200859 0.00057654798729 -0.00012972099648
          -0.0011851999443 -0.0011853700271 0.00065707298927 -0.00021379700047 0.00061629101401 -0.0008214340196
          0.00040213699685 0 -0.0011578300036 0 0 0
          0 -0.00057042599656 -0.000545435003 -0.0011791499564 -0.00018531200476 0
          0.00044842300122 0.00037799301208 -3.6404599086e-05 0 0.00041513401084 0.00041072501335
          0 0 -0.0003201290092 -0.00030426599551 -0.00022460099717 0
          0.00030713601154 0.00049237802159 0.0004865170049 0 0 0
          -0.00088632997358 0.0004063929955 0 -0.00079254497541 0 0
          0 0.00045355598559 -0.00010772699898 -0.00013889299589 0 0
          0 -0.0010768199572 -0.00024827499874 -0.00023608800257 0 0.00065497297328
          0.00042419799138 0 0.00054278702009 -0.00067695102189 -0.00049760902766 -0.00047480899957
          0.00032432700391 0.00041962400428 -0.0010774900438 0.00063716602745 -0.00021062800079 0
          0.00020335799491 1.2262999917e-05 0.00025349500356 0.00032089601154 -0.00085114699323 0
          0.00053618301172 0.00052965298528 0.00046956600272 0 -0.00013412999397 0
          -0.00052115699509
        </DataArray>
        <DataArray type="Float32" Name="T1_3" format="ascii" RangeMin="-0.084984898567" RangeMax="0.033660400659">
          -0.073641702533 -0.08185890317 0.0026977099478 0.0062019200996 -0.020471800119 -0.020236199722
          0 0 0 0 -0.023750700057 -0.023580500856
          -0.0057902801782 -0.0077367401682 0.0059681800194 0.0048162401654 0 0
          0.023986399174 0.026184199378 -0.015876699239 -0.015675300732 -0.017321800813 -0.017110800371
          0 0 -0.015716299415 -0.0093155903742 -0.03128580004 -0.030812099576
          -0.018184300512 -0.017965799198 0 0 -0.0029639101122 0.0070511801168
          0 0 -0.011476200074 0 0 0.0056179799139
          0.0037667800207 -0.017749199644 0.0085869599134 0.0082095796242 0 0
          0.017044499516 0.016308799386 0.0071521899663 -0.024333000183 -0.024365900084 0.02756460011
          0.026813499629 0 0 0 0 0
          0 0 0 0 0 0
          0 -0.023961000144 -0.024135699496 0.0068039698526 0.011157300323 -0.011961700395
          -0.014222200029 -0.01547480002 -0.030801199377 -0.011598699726 -0.011461400427 -0.023728100583
          -0.016558900476 -0.018943900242 -0.01388350036 -0.013683799654 0 0
          -0.010618099943 -0.012346199714 0 0 0 -0.023397300392
          -0.024361100048 -0.024322699755 -0.023202899843 0 0 -0.02368620038
          -0.025917299092 0.033347100019 0.033032998443 0.028036799282 -0.015274999663 0.014821499586
          0.014063499868 -0.022569099441 -0.02234560065 0 0 0
          0 0 -0.080902598798 -0.075543597341 -0.0025853600819 -0.0047225500457
          -0.013079499826 -0.012875700369 0.0019475399749 0 0 0
          0 -0.017910800874 -0.018974199891 0 0 -0.0097959302366
          -0.053538098931 -0.045524999499 -0.012255099602 -0.012042899616 -0.021466100588 -0.022088000551
          0 -0.00063239602605 -0.0022404200863 0.0080245295539 0.0017226500204 -0.012463499792
          0.029025299475 0.028303399682 0 0 -0.023905700073 -0.01690139994
          0.026054199785 0.025290299207 -0.015397899784 -0.016720399261 -0.023063300177 -0.023430999368
          0.013290800154 0.012499099597 -0.02961649932 0.02148360014 0.020734099671 -0.016487499699
          -0.016282700002 0.011683600023 -0.012670500204 0 0 0
          -0.061421401799 -0.018627300858 -0.018404800445 -0.02070819959 -0.015075700358 0
          0 -0.016693700105 -0.016079200432 -0.019916500896 -0.020744800568 0
          -0.0039585600607 -0.011835499667 0.018436800689 0.021413700655 0.0035877299961 0.0022750198841
          0 0 -0.029055099934 -0.020944999531 -0.014082600363 0.033628299832
          0.033660400659 -0.021886700764 -0.021653199568 0 0 -0.0087624201551
          0 0 -0.013281900436 0.024524699897 -0.014876900241 -0.01467840001
          0 0 0 0 0.029572999105 0.030820999295
          0.033097401261 0.033447101712 0.010839099996 0 0 0
          0.03263239935 0 0 0.022237999365 0 0
          0 0 0 -0.058701101691 -0.024257900193 0.0080727096647
          -0.029920399189 -0.022600499913 -0.01394020021 0.017778400332 -0.022617900744 0.032558500767
          -0.01885179989 0 -0.003424549941 0 0 0
          0 0.032157700509 0.031620100141 -0.037599399686 0.015568800271 0
          -0.021181700751 -0.017534600571 -0.021337699145 0 -0.019536599517 -0.019306499511
          0 0 0.023759599775 0.022996900603 0.018512800336 0
          -0.013483299874 -0.022999100387 -0.02278739959 0 0 0
          -0.084321603179 -0.019078200683 0 -0.084984898567 0 0
          0 -0.02141799964 0.00087065598927 0.0099599696696 0 0
          0 0.015026999637 0.019989600405 0.019249500707 0 -0.0067909201607
          -0.020001700148 0 -0.024254700169 0.033561199903 0.03039499931 0.029724499211
          -0.014479899779 -0.019768400118 -0.06888409704 -0.0004188969906 -0.034998901188 0
          -0.025606999174 -0.027935300022 -0.019958499819 -0.014281399548 0.031807698309 0
          -0.024160400033 -0.024043099955 -0.022117799148 0 0.0090400101617 0
          0.031029500067
        </DataArray>
        <DataArray type="Float32" Name="T1_4" format="ascii" RangeMin="-0.026845099404" RangeMax="0.016253100708">
          0.0036618299782 0.0037312200293 -0.013975200243 -0.014484000392 -0.026508200914 -0.026415100321
          0 0 0 0 -0.026425499469 -0.026531500742
          -0.0029529898893 -0.0036135399714 0.0027546200436 0.0020270799287 0 0
          0.0084986602888 0.0092129502445 -0.022846000269 -0.022601099685 -0.024408100173 -0.024202400818
          0 0 0.0027117100544 0.0031791699585 -0.0093745402992 -0.009768139571
          -0.025165200233 -0.024986200035 0 0 -0.013301500119 0.0034786500037
          0 0 -0.012387899682 0 0 -0.01597969979
          -0.016235200688 -0.024800200015 -0.015197900124 -0.015474500135 0 0
          0.011255599558 0.010703300126 -0.015729799867 -0.024968300015 -0.025211000815 0.016093799844
          0.015961999074 0 0 0 0 0
          0 0 0 0 0 0
          0 -0.024137999862 -0.024431500584 0.0049527902156 0.0056301099248 -0.0048647602089
          -0.0054493201897 -0.022351199761 -0.0090083600953 -0.016761200503 -0.016552999616 -0.023828500882
          -0.0060029597953 -0.0065236901864 -0.020185900852 -0.019895900041 0 0
          -0.018489399925 -0.01887469925 0 0 0 -0.02662150003
          -0.025436300784 -0.025644199923 -0.026695700362 0 0 -0.0074631799944
          -0.0078837899491 0.015131600201 0.015425399877 0.0099118603393 -0.022096399218 0.0095352102071
          0.0089216800407 -0.026828100905 -0.026843499392 0 0 0
          0 0 0.0028217099607 0.0024491099175 -0.017092399299 -0.01741570048
          -0.019002199173 -0.018696600571 0.004311140161 0 0 0
          0 -0.020481299609 -0.02088579908 0 0 -0.0042518498376
          0.0017682999605 0.0017460100353 -0.017758199945 -0.017435800284 -0.022067699581 -0.022444799542
          0 -0.00087040098151 -0.0015782000264 -0.014877599664 -0.016503300518 -0.018074199557
          0.016240399331 0.016186900437 0 0 -0.026303099468 -0.023990700021
          0.015792699531 0.015587000176 -0.019670499489 -0.020075399429 -0.023163899779 -0.023503499106
          0.0082901101559 0.0076417601667 -0.0086475200951 0.014053899795 0.013654500246 -0.02354940027
          -0.023320300505 0.0069779399782 -0.018387399614 0 0 0
          0.0018997100415 -0.025501100346 -0.025336900726 -0.026590799913 -0.021836899221 0
          0 -0.023772900924 -0.023085800931 -0.021286400035 -0.021680999547 0
          -0.0022734599188 -0.01712070033 0.0070508099161 0.0077755101956 0.0012982999906 0.00057069800096
          0 0 -0.010219300166 -0.026662599295 -0.020471699536 0.013982299715
          0.014409500174 -0.026833500713 -0.026808999479 0 0 -0.01811609976
          0 0 -0.019303999841 0.015346099623 -0.02157269977 -0.021304000169
          0 0 0 0 0.010589700192 0.011241500266
          0.01300110016 0.013512300327 0.0063000400551 0 0 0
          0.015674199909 0 0 0.014423900284 0 0
          0 0 0 0.0031692399643 -0.024708399549 0.0041970899329
          0.0020294499118 0.0023249799851 -0.019269399345 0.011785199866 -0.022810600698 0.012450399809
          -0.025657499209 0 0.0037161400542 0 0 0
          0 0.015877999365 0.016037199646 0.0018341999967 0.01012950018 0
          -0.026723099872 -0.024607399479 -0.0070103998296 0 -0.026076899841 -0.025945700705
          0 0 0.015071200207 0.014763399959 0.012291000225 0
          -0.019601900131 -0.026754699647 -0.026798700914 0 0 0
          0.0032062099781 -0.025805799291 0 0.0035390099511 0 0
          0 -0.026772100478 -0.00015312399773 0.0056095300242 0 0
          0 0.0063326898962 0.013226799667 0.012771899812 0 -0.017757499591
          -0.026311999187 0 -0.025834700093 0.01479279995 0.016224000603 0.016253100708
          -0.021030899137 -0.026199100539 0.0021322499961 -0.01678840071 0.00204079994 0
          -0.010768200271 -0.0082762604579 -0.011468100362 -0.0207534004 0.011862900108 0
          -0.026007900015 -0.026164000854 -0.026845099404 0 0.0049079898745 0
          0.016152299941
        </DataArray>
        <DataArray type="Float32" Name="T1_5" format="ascii" RangeMin="-0.13061900437" RangeMax="0.38500401378">
          0.36658298969 0.29760599136 -0.093961402774 -0.089065499604 0.013653400354 0.014103299938
          0 0 0 0 0.004972289782 0.0055363900028
          -0.024201199412 -0.02746119909 0.0011157899862 -0.0014728299575 0 0
          -0.0015638900222 0.0073981699534 0.017585400492 0.017520099878 0.017484400421 0.017564000562
          0 0 -0.11277499795 -0.10101199895 0.052719000727 0.074592098594
          0.01692279987 0.017100999132 0 0 -0.072051800787 0.0034988299012
          0 0 0.0015777499648 0 0 0.0072858799249
          0.019488399848 0.017253600061 -0.04948040098 -0.027750000358 0 0
          0.021499900147 0.020362600684 -0.0085186399519 0.0026649800129 0.0026211699005 0.039877500385
          0.038428198546 0 0 0 0 0
          0 0 0 0 0 0
          0 0.0037044698838 0.0031894799322 -0.06064600125 -0.04727749899 -0.032707601786
          -0.034209400415 0.017437299713 0.031084299088 0.013573500328 0.013405799866 0.0044110701419
          -0.034546598792 -0.03333120048 0.016238700598 0.016033900902 0 0
          0.035789299756 0.033232398331 0 0 0 0.0061271297745
          0.0027010000776 0.002888899995 0.0067366901785 0 0 -0.02442589961
          -0.015763999894 0.048518501222 0.048646498471 0.0153235998 0.017337700352 0.018038399518
          0.016822500154 0.0086124995723 0.0092351799831 0 0 0
          0 0 0.050526298583 -0.011155099608 0.037634599954 0.039089698344
          0.015365400352 0.015127199702 -0.07434219867 0 0 0
          0 0.021312400699 0.018495000899 0 0 -0.030368600041
          -0.11419499665 -0.12635199726 0.014378299937 0.014117900282 0.011351400055 0.0094693200663
          0 -0.013803100213 -0.017259400338 -0.071416802704 0.028321100399 0.01463260036
          0.042678501457 0.04130090028 0 0 0.004443500191 0.01762060076
          0.036970000714 0.035517100245 0.027326799929 0.024280000478 0.0064654601738 0.0053261402063
          0.015549300238 0.014201300219 0.011962699704 0.0286445003 0.02737909928 0.017667900771
          0.017660100013 0.012760099955 0.014882699586 0 0 0
          -0.092204898596 0.016487600282 0.016718499362 0.013177400455 0.017222199589 0
          0 0.017655000091 0.017632300034 0.015876900405 0.013489699923 0
          -0.020757399499 0.013863099739 -0.022574799135 -0.011564799584 -0.0042698499747 -0.0072700697929
          0 0 0.092154301703 0.01267629955 0.016433099285 0.045559998602
          0.047035399824 0.010450500064 0.011036399752 0 0 0.037807799876
          0 0 0.015596400015 0.034080699086 0.017091499642 0.016946399584
          0 0 0 0 0.022238599136 0.028186500072
          0.040815800428 0.043509401381 0.011206800118 0 0 0
          0.048439398408 0 0 0.029948500916 0 0
          0 0 0 0.38500401378 0.002848759992 0.0056850598194
          -0.12877899408 -0.12239199877 0.03035469912 0.022637400776 0.0078428899869 0.037409998477
          0.016229700297 0 -0.087972700596 0 0 0
          0 0.047947399318 0.047216299921 -0.13061900437 0.019213400781 0
          0.012151399627 0.017381200567 -0.030119000003 0 0.015290799551 0.015631400049
          0 0 0.032669801265 0.031291000545 0.023786000907 0
          0.015819499269 0.007358119823 0.0079852100462 0 0 0
          0.12592999637 0.015944300219 0 0.21132299304 0 0
          0 0.011604099534 -0.010457700118 0.0095221595839 0 0
          0 -0.034521400928 0.026150299236 0.024954499677 0 0.039017599076
          0.014526500367 0 0.003170239972 0.048000898212 0.045200400054 0.043987199664
          0.016787799075 0.014922400005 -0.058422598988 0.034206800163 0.29514700174 0
          0.097094602883 -0.0037114100996 0.074984997511 0.016616400331 0.033222701401 0
          0.0035313700791 0.0039596599527 0.00984906964 0 0.0076875197701 0
          0.046287998557
        </DataArray>
      </PointData>
      <Points>
        <DataArray type="Float32" Name="Points" NumberOfComponents="3" format="ascii" RangeMin="0" RangeMax="3">
          0.029999999329 0 0 0.039999999106 0 0
          1.0199999809 0 0 1.0299999714 0 0
          1.5700000525 0 0 1.5800000429 0 0
          2.9500000477 0 0 2.9600000381 0 0
          2.6500000954 0 0 2.6600000858 0 0
          1.4199999571 0 0 1.4299999475 0 0
          0.81999999285 0 0 0.82999998331 0 0
          0.74000000954 0 0 0.75 0 0
          2.0699999332 0 0 2.0799999237 0 0
          0.25 0 0 0.25999999046 0 0
          1.7799999714 0 0 1.7899999619 0 0
          1.7100000381 0 0 1.7200000286 0 0
          2.7899999619 0 0 2.7999999523 0 0
          0.15999999642 0 0 0.17000000179 0 0
          0.94999998808 0 0 0.95999997854 0 0
          1.6699999571 0 0 1.6799999475 0 0
          2.4700000286 0 0 2.4800000191 0 0
          1.0099999905 0 0 0.73000001907 0 0
          2.6900000572 0 0 2.7000000477 0 0
          1 0 0 2.8599998951 0 0
          2.8699998856 0 0 1.0800000429 0 0
          1.0900000334 0 0 1.6900000572 0 0
          1.0499999523 0 0 1.0599999428 0 0
          2.6199998856 0 0 2.6300001144 0 0
          0.61000001431 0 0 0.62000000477 0 0
          1.0700000525 0 0 1.3400000334 0 0
          1.3500000238 0 0 0.46999999881 0 0
          0.47999998927 0 0 2.7100000381 0 0
          2.6800000668 0 0 2.1700000763 0 0
          2.1800000668 0 0 2.0999999046 0 0
          2.1099998951 0 0 2.9200000763 0 0
          2.9300000668 0 0 2.8099999428 0 0
          2.8199999332 0 0 2.5799999237 0 0
          2.5899999142 0 0 1.3099999428 0 0
          1.3200000525 0 0 0.20000000298 0 0
          0.20999999344 0 0 0.85000002384 0 0
          0.86000001431 0 0 1.7999999523 0 0
          0.93999999762 0 0 1.9900000095 0 0
          2 0 0 1.2999999523 0 0
          0.87000000477 0 0 0.87999999523 0 0
          1.8799999952 0 0 1.8899999857 0 0
          2.0199999809 0 0 2.0299999714 0 0
          1.1599999666 0 0 1.1699999571 0 0
          2.2100000381 0 0 2.2200000286 0 0
          2.1600000858 0 0 1.4400000572 0 0
          1.3600000143 0 0 1.3700000048 0 0
          1.4500000477 0 0 2.2400000095 0 0
          2.25 0 0 0.89999997616 0 0
          0.91000002623 0 0 0.37000000477 0 0
          0.37999999523 0 0 0.27000001073 0 0
          1.8099999428 0 0 0.63999998569 0 0
          0.64999997616 0 0 1.4800000191 0 0
          1.4900000095 0 0 2.9000000954 0 0
          2.9100000858 0 0 2.1300001144 0 0
          2.1400001049 0 0 2.0899999142 0 0
          0.070000000298 0 0 0.079999998212 0 0
          1.1200000048 0 0 1.1299999952 0 0
          1.9199999571 0 0 1.9299999475 0 0
          0.18999999762 0 0 2.8800001144 0 0
          2.8900001049 0 0 2.3800001144 0 0
          2.3900001049 0 0 1.2100000381 0 0
          1.2200000286 0 0 2.4900000095 0 0
          2.5 0 0 0.83999997377 0 0
          0.1099999994 0 0 0.11999999732 0 0
          1.9600000381 0 0 1.9700000286 0 0
          1.25 0 0 1.2599999905 0 0
          2.6700000763 0 0 0.79000002146 0 0
          0.80000001192 0 0 1.0399999619 0 0
          1.1000000238 0 0 1.9500000477 0 0
          0.44999998808 0 0 0.46000000834 0 0
          2.9900000095 0 0 3 0 0
          1.4099999666 0 0 1.7300000191 0 0
          0.49000000954 0 0 0.5 0 0
          1.1900000572 0 0 1.2000000477 0 0
          1.2799999714 0 0 1.2899999619 0 0
          0.66000002623 0 0 0.67000001669 0 0
          0.93000000715 0 0 0.55000001192 0 0
          0.56000000238 0 0 1.75 0 0
          1.7599999905 0 0 0.68000000715 0 0
          1.9400000572 0 0 2.4000000954 0 0
          2.3299999237 0 0 2.3399999142 0 0
          0.10000000149 0 0 1.6499999762 0 0
          1.6599999666 0 0 1.5599999428 0 0
          1.8200000525 0 0 2.4200000763 0 0
          2.4300000668 0 0 1.7400000095 0 0
          1.7699999809 0 0 1.2300000191 0 0
          1.2400000095 0 0 2.9400000572 0 0
          0.81000000238 0 0 1.9800000191 0 0
          0.23000000417 0 0 0.23999999464 0 0
          0.75999999046 0 0 0.76999998093 0 0
          2.1199998856 0 0 2.0099999905 0 0
          0.97000002861 0 0 1.5499999523 0 0
          1.8700000048 0 0 0.34000000358 0 0
          0.34999999404 0 0 1.5099999905 0 0
          1.5199999809 0 0 2.3499999046 0 0
          2.3599998951 0 0 1.1499999762 0 0
          2.6400001049 0 0 2.4400000572 0 0
          1.9099999666 0 0 0.50999999046 0 0
          1.8300000429 0 0 1.8400000334 0 0
          2.75 0 0 2.7599999905 0 0
          2.7699999809 0 0 2.7799999714 0 0
          0.28000000119 0 0 0.28999999166 0 0
          0.31999999285 0 0 0.33000001311 0 0
          0.68999999762 0 0 2.2599999905 0 0
          2.2699999809 0 0 2.1500000954 0 0
          0.38999998569 0 0 2.0499999523 0 0
          2.0599999428 0 0 0.54000002146 0 0
          2.2799999714 0 0 2.2899999619 0 0
          2.9700000286 0 0 2.3099999428 0 0
          2.3199999332 0 0 0.019999999553 0 0
          1.3300000429 0 0 0.72000002861 0 0
          0.1400000006 0 0 0.15000000596 0 0
          1.1799999475 0 0 0.60000002384 0 0
          1.2699999809 0 0 0.31000000238 0 0
          1.6399999857 0 0 2.6099998951 0 0
          0.18000000715 0 0 2.8499999046 0 0
          2.5099999905 0 0 2.5199999809 0 0
          2.9800000191 0 0 0.40000000596 0 0
          0.40999999642 0 0 0.12999999523 0 0
          0.62999999523 0 0 2.0399999619 0 0
          1.5399999619 0 0 1.7000000477 0 0
          0.88999998569 0 0 2.2999999523 0 0
          1.6100000143 0 0 1.6200000048 0 0
          2.7200000286 0 0 2.7300000191 0 0
          0.51999998093 0 0 0.52999997139 0 0
          0.58999997377 0 0 2.2300000191 0 0
          1.8999999762 0 0 1.4600000381 0 0
          1.4700000286 0 0 2.7400000095 0 0
          2.5599999428 0 0 2.5699999332 0 0
          0.059999998659 0 0 1.6299999952 0 0
          2.3699998856 0 0 0.050000000745 0 0
          2.5299999714 0 0 2.5399999619 0 0
          2.8299999237 0 0 1.5299999714 0 0
          0.77999997139 0 0 0.69999998808 0 0
          2.4500000477 0 0 2.4600000381 0 0
          2.5999999046 0 0 0.21999999881 0 0
          0.56999999285 0 0 0.57999998331 0 0
          2.5499999523 0 0 1.1399999857 0 0
          1.5900000334 0 0 2.4100000858 0 0
          1.3799999952 0 0 0.36000001431 0 0
          0.43000000715 0 0 0.43999999762 0 0
          1.8500000238 0 0 1.6000000238 0 0
          0.090000003576 0 0 1.1100000143 0 0
          0.0099999997765 0 0 2.1900000572 0 0
          0.98000001907 0 0 0.92000001669 0 0
          0.99000000954 0 0 1.8600000143 0 0
          0.30000001192 0 0 2.8399999142 0 0
          1.3899999857 0 0 1.3999999762 0 0
          1.5 0 0 2.2000000477 0 0
          0.70999997854 0 0 0 0 0
          0.41999998689 0 0
        </DataArray>
      </Points>
      <Cells>
        <DataArray type="Int64" Name="connectivity" format="ascii" RangeMin="0" RangeMax="300">
          0 1 2 3 4 5
          6 7 8 9 10 11
          12 13 14 15 16 17
          18 19 20 21 22 23
          24 25 26 27 28 29
          30 31 32 33 34 2
          35 14 36 37 38 34
          39 40 41 42 31 43
          44 45 46 47 48 49
          50 41 51 52 53 54
          37 55 56 36 57 58
          59 60 61 62 63 64
          65 66 67 68 69 70
          71 72 21 73 74 28
          75 76 77 67 78 79
          80 81 82 83 84 85
          86 87 25 63 88 57
          11 89 90 91 89 92
          93 94 95 96 97 98
          19 99 73 100 101 102
          103 104 105 106 107 108
          17 109 110 111 112 113
          114 115 116 69 117 118
          119 120 121 122 123 124
          125 71 126 127 128 129
          130 131 118 105 132 56
          133 134 3 135 42 136
          137 128 138 139 140 141
          142 10 23 143 144 145
          146 147 148 149 109 59
          150 151 152 74 153 154
          155 156 151 157 158 137
          120 159 160 161 162 126
          163 164 165 4 100 166
          167 168 143 169 170 20
          171 172 173 6 134 174
          175 75 176 177 178 179
          60 180 76 181 29 182
          102 150 183 165 184 80
          174 12 185 186 187 188
          189 190 191 84 9 132
          47 192 168 193 194 114
          145 195 196 197 198 199
          200 201 202 203 201 24
          204 205 157 206 207 208
          108 209 98 210 211 212
          213 153 214 215 7 216
          129 175 217 218 180 107
          219 0 68 220 221 35
          222 223 224 146 225 48
          131 226 227 204 228 163
          229 46 169 155 27 230