<VTKFile type="UnstructuredGrid" version="0.1" byte_order="LittleEndian">
  <UnstructuredGrid>
    <Piece NumberOfPoints="101" NumberOfCells="100">
      <PointData Scalars="T1_0">
        <DataArray type="Float32" Name="T1_0" format="ascii" RangeMin="0" RangeMax="0">
          0 0 0 0 0 0
          0 0 0 0 0 0
          0 0 0 0 0 0
          0 0 0 0 0 0
          0 0 0 0 0 0
          0 0 0 0 0 0
          0 0 0 0 0 0
          0 0 0 0 0 0
          0 0 0 0 0 0
          0 0 0 0 0 0
          0 0 0 0 0 0
          0 0 0 0 0 0
          0 0 0 0 0 0
          0 0 0 0 0 0
          0 0 0 0 0 0
          0 0 0 0 0 0
          0 0 0 0 0
        </DataArray>
        <DataArray type="Float32" Name="T1_1" format="ascii" RangeMin="0" RangeMax="13.046699524">
          2.0791199207 2.5677700043 11.036000252 11.233300209 1.0646799803 0.53867799044
          0 10.609999657 10.381400108 4.4010300636 3.9607200623 12.546699524
          12.44149971 13.046699524 13.041700363 9.0784902573 8.7856502533 12.80189991
          12.726900101 6.0447602272 6.4267601967 6.7973499298 6.0447602272 5.6512799263
          7.1566100121 7.5046300888 12.200699806 12.326100349 11.420200348 11.59679985
          12.866900444 12.92179966 9.3605003357 9.6317300797 5.6512799263 12.44149971
          13.02670002 13.041700363 12.641799927 12.726900101 3.9607200623 4.4010300636
          3.04418993 2.5677700043 9.6317300797 9.3605003357 10.82820034 13.02670002
          11.59679985 11.420200348 11.919199944 11.76309967 12.546699524 10.142100334
          9.892250061 5.2462201118 11.036000252 7.8414697647 12.866900444 8.1672000885
          8.4819097519 0.53867799044 1.0646799803 10.142100334 10.381400108 10.609999657
          10.82820034 9.0784902573 13.001700401 12.966799736 2.0791199207 1.5781300068
          11.919199944 12.06499958 1.5781300068 12.80189991 4.8295001984 4.8295001984
          7.8414697647 7.5046300888 8.4819097519 8.1672000885 12.200699806 12.06499958
          6.4267601967 12.92179966 13.001700401 11.233300209 9.892250061 3.5084700584
          6.7973499298 7.1566100121 3.5084700584 8.7856502533 12.966799736 12.641799927
          12.326100349 11.76309967 5.2462201118 3.04418993 0
        </DataArray>
        <DataArray type="Float32" Name="T1_2" format="ascii" RangeMin="-2.9682500362" RangeMax="2.444849968">
          -1.9195200205 -2.2237799168 0.10779199749 0.31104299426 -1.1119699478 -0.5971570015
          0 -0.31075099111 -0.52393198013 -2.8964600563 -2.8006699085 1.8099199533
          1.6807199717 2.444849968 2.4383399487 -1.5792299509 -1.7779999971 2.129709959
          2.0347800255 -2.9047400951 -2.8305900097 -2.7321999073 -2.9047400951 -2.9516899586
          -2.6123800278 -2.4737501144 1.3909100294 1.5408899784 0.50899600983 0.70077699423
          2.212569952 2.2831099033 -1.3742599487 -1.1647399664 -2.9516899586 1.6807199717
          2.4188399315 2.4383399487 1.9280699492 2.0347800255 -2.8006699085 -2.8964600563
          -2.4688200951 -2.2237799168 -1.1647399664 -1.3742599487 -0.099811397493 2.4188399315
          0.70077699423 0.50899600983 1.0626499653 0.88557702303 1.8099199533 -0.73818099499
          -0.95223599672 -2.9682500362 0.10779199749 -2.3187599182 2.212569952 -2.1497199535
          -1.9687999487 -0.5971570015 -1.1119699478 -0.73818099499 -0.52393198013 -0.31075099111
          -0.099811397493 -1.5792299509 2.3863899708 2.3411099911 -1.9195200205 -1.5507800579
          1.0626499653 1.2312999964 -1.5507800579 2.129709959 -2.9510400295 -2.9510400295
          -2.3187599182 -2.4737501144 -1.9687999487 -2.1497199535 1.3909100294 1.2312999964
          -2.8305900097 2.2831099033 2.3863899708 0.31104299426 -0.95223599672 -2.6595699787
          -2.7321999073 -2.6123800278 -2.6595699787 -1.7779999971 2.3411099911 1.9280699492
          1.5408899784 0.88557702303 -2.9682500362 -2.4688200951 0
        </DataArray>
        <DataArray type="Float32" Name="T1_3" format="ascii" RangeMin="-0.004246420227" RangeMax="0.0020415300969">
          -0.004244859796 -0.004246420227 0.00058179599 0.00027860701084 -0.0032034199685 -0.0019420499448
          0 0.0011359100463 0.0013775900006 -0.0025582900271 -0.0031242300756 -0.0025047699455
          -0.0022323199082 -0.0039176698774 -0.003902599914 0.0020415300969 0.0020328699611 -0.0032015598845
          -0.0029914700426 -0.00024019900593 0.0002573679958 0.00069973501377 -0.00024019900593 -0.00078463798855
          0.0010814700508 0.0013994999463 -0.0016413399717 -0.0019436200382 -3.608229963e-05 -0.00035804801155
          -0.003387110075 -0.0035466100089 0.0019970999565 0.0019038700266 -0.00078463798855 -0.0022323199082
          -0.0038575099315 -0.003902599914 -0.002758549992 -0.0029914700426 -0.0031242300756 -0.0025582900271
          -0.0040174801834 -0.004246420227 0.0019038700266 0.0019970999565 0.00086908298545 -0.0038575099315
          -0.00035804801155 -3.608229963e-05 -0.001007910003 -0.00068326300243 -0.0025047699455 0.0015893599484
          0.001766380039 -0.0013640900142 0.00058179599 0.0016526699765 -0.003387110075 0.0018413900398
          0.0019672599155 -0.0019420499448 -0.0032034199685 0.0015893599484 0.0013775900006 0.0011359100463
          0.00086908298545 0.0020415300969 -0.0037827300839 -0.0036788301077 -0.004244859796 -0.0039305700921
          -0.001007910003 -0.0013283899752 -0.0039305700921 -0.0032015598845 -0.0019624000415 -0.0019624000415
          0.0016526699765 0.0013994999463 0.0019672599155 0.0018413900398 -0.0016413399717 -0.0013283899752
          0.0002573679958 -0.0035466100089 -0.0037827300839 0.00027860701084 0.001766380039 -0.0036252499558
          0.00069973501377 0.0010814700508 -0.0036252499558 0.0020328699611 -0.0036788301077 -0.002758549992
          -0.0019436200382 -0.00068326300243 -0.0013640900142 -0.0040174801834 0
        </DataArray>
        <DataArray type="Float32" Name="T1_4" format="ascii" RangeMin="-0.012499400415" RangeMax="0.00022560800426">
          -0.00024103200121 -0.00058466999326 -0.0076524000615 -0.0079922499135 0.00021406299493 0.00022560800426
          0 -0.0069971699268 -0.0066853500903 -0.0020812100265 -0.0017206299817 -0.01097210031
          -0.01068110019 -0.012499400415 -0.012482900172 -0.0053201699629 -0.0050847698003 -0.011721000075
          -0.01149439998 -0.0032922399696 -0.003541240003 -0.0037750098854 -0.0032922399696 -0.0030241799541
          -0.0039976700209 -0.0042134798132 -0.010052200407 -0.010373500176 -0.0083373999223 -0.0086854100227
          -0.011921799742 -0.012094900012 -0.0055670300499 -0.0058265700936 -0.0030241799541 -0.01068110019
          -0.012433599681 -0.012482900172 -0.011243999936 -0.01149439998 -0.0017206299817 -0.0020812100265
          -0.00095970998518 -0.00058466999326 -0.0058265700936 -0.0055670300499 -0.007320059929 -0.012433599681
          -0.0086854100227 -0.0083373999223 -0.0093794399872 -0.0090336697176 -0.01097210031 -0.0063858400099
          -0.0060994499363 -0.0027339900844 -0.0076524000615 -0.0044265100732 -0.011921799742 -0.0046405601315
          -0.0048590102233 0.00022560800426 0.00021406299493 -0.0063858400099 -0.0066853500903 -0.0069971699268
          -0.007320059929 -0.0053201699629 -0.012351900339 -0.012238699943 -0.00024103200121 3.9532998926e-05
          -0.0093794399872 -0.0097199101001 3.9532998926e-05 -0.011721000075 -0.0024197399616 -0.0024197399616
          -0.0044265100732 -0.0042134798132 -0.0048590102233 -0.0046405601315 -0.010052200407 -0.0097199101001
          -0.003541240003 -0.012094900012 -0.012351900339 -0.0079922499135 -0.0060994499363 -0.001343520009
          -0.0037750098854 -0.0039976700209 -0.001343520009 -0.0050847698003 -0.012238699943 -0.011243999936
          -0.010373500176 -0.0090336697176 -0.0027339900844 -0.00095970998518 0
        </DataArray>
        <DataArray type="Float32" Name="T1_5" format="ascii" RangeMin="-5.3288600611e-05" RangeMax="0.00022964600066">
          0.00017459399533 0.00012337400403 5.6540298829e-05 5.11549988e-05 0.00022964600066 0.00017733700224
          0 6.4442101575e-05 6.6669897933e-05 -2.1130899768e-05 9.4823997188e-07 -1.4322899915e-05
          -7.1216900324e-06 -5.3288600611e-05 -5.2860799769e-05 5.5961998441e-05 4.9045200285e-05 -3.3231099223e-05
          -2.7461199352e-05 -3.4332999348e-05 -2.5961000574e-05 -1.5468300262e-05 -3.4332999348e-05 -3.9423299313e-05
          -3.8313000914e-06 8.1533698904e-06 8.0582904047e-06 3.741280068e-07 4.5012500777e-05 3.8262398448e-05
          -3.8372101699e-05 -4.2824100092e-05 6.1271101004e-05 6.4951098466e-05 -3.9423299313e-05 -7.1216900324e-06
          -5.1581901062e-05 -5.2860799769e-05 -2.1132100301e-05 -2.7461199352e-05 9.4823997188e-07 -2.1130899768e-05
          7.4303898145e-05 0.00012337400403 6.4951098466e-05 6.1271101004e-05 6.101839972e-05 -5.1581901062e-05
          3.8262398448e-05 4.5012500777e-05 2.3524000426e-05 3.1051898986e-05 -1.4322899915e-05 6.7571003456e-05
          6.7029402999e-05 -3.9899001422e-05 5.6540298829e-05 1.9854900529e-05 -3.8372101699e-05 3.0789800803e-05
          4.0602299123e-05 0.00017733700224 0.00022964600066 6.7571003456e-05 6.6669897933e-05 6.4442101575e-05
          6.101839972e-05 5.5961998441e-05 -4.9466001656e-05 -4.6535900765e-05 0.00017459399533 0.00021684699459
          2.3524000426e-05 1.5815900042e-05 0.00021684699459 -3.3231099223e-05 -3.4299100662e-05 -3.4299100662e-05
          1.9854900529e-05 8.1533698904e-06 4.0602299123e-05 3.0789800803e-05 8.0582904047e-06 1.5815900042e-05
          -2.5961000574e-05 -4.2824100092e-05 -4.9466001656e-05 5.11549988e-05 6.7029402999e-05 3.2808598917e-05
          -1.5468300262e-05 -3.8313000914e-06 3.2808598917e-05 4.9045200285e-05 -4.6535900765e-05 -2.1132100301e-05
          3.741280068e-07 3.1051898986e-05 -3.9899001422e-05 7.4303898145e-05 0
        </DataArray>
      </PointData>
      <Points>
        <DataArray type="Float32" Name="Points" NumberOfComponents="3" format="ascii" RangeMin="0" RangeMax="1">
          0.039999999106 0 0 0.050000000745 0 0
          0.30000001192 0 0 0.31000000238 0 0
          0.98000001907 0 0 0.99000000954 0 0
          1 0 0 0.72000002861 0 0
          0.73000001907 0 0 0.91000002623 0 0
          0.92000001669 0 0 0.60000002384 0 0
          0.61000001431 0 0 0.5 0 0
          0.50999999046 0 0 0.77999997139 0 0
          0.79000002146 0 0 0.56999999285 0 0
          0.57999998331 0 0 0.12999999523 0 0
          0.1400000006 0 0 0.15000000596 0 0
          0.87000000477 0 0 0.87999999523 0 0
          0.15999999642 0 0 0.17000000179 0 0
          0.37000000477 0 0 0.37999999523 0 0
          0.31999999285 0 0 0.33000001311 0 0
          0.43999999762 0 0 0.44999998808 0 0
          0.23000000417 0 0 0.23999999464 0 0
          0.11999999732 0 0 0.38999998569 0 0
          0.47999998927 0 0 0.49000000954 0 0
          0.40999999642 0 0 0.41999998689 0 0
          0.079999998212 0 0 0.090000003576 0 0
          0.93999999762 0 0 0.94999998808 0 0
          0.75999999046 0 0 0.76999998093 0 0
          0.70999997854 0 0 0.51999998093 0 0
          0.67000001669 0 0 0.68000000715 0 0
          0.64999997616 0 0 0.66000002623 0 0
          0.40000000596 0 0 0.74000000954 0 0
          0.75 0 0 0.88999998569 0 0
          0.69999998808 0 0 0.18000000715 0 0
          0.56000000238 0 0 0.18999999762 0 0
          0.20000000298 0 0 0.0099999997765 0 0
          0.019999999553 0 0 0.25999999046 0 0
          0.27000001073 0 0 0.28000000119 0 0
          0.28999999166 0 0 0.21999999881 0 0
          0.52999997139 0 0 0.54000002146 0 0
          0.95999997854 0 0 0.97000002861 0 0
          0.34999999404 0 0 0.36000001431 0 0
          0.029999999329 0 0 0.43000000715 0 0
          0.10000000149 0 0 0.89999997616 0 0
          0.81999999285 0 0 0.82999998331 0 0
          0.80000001192 0 0 0.81000000238 0 0
          0.62999999523 0 0 0.63999998569 0 0
          0.86000001431 0 0 0.55000001192 0 0
          0.46999999881 0 0 0.68999999762 0 0
          0.25 0 0 0.070000000298 0 0
          0.85000002384 0 0 0.83999997377 0 0
          0.93000000715 0 0 0.20999999344 0 0
          0.46000000834 0 0 0.58999997377 0 0
          0.62000000477 0 0 0.34000000358 0 0
          0.1099999994 0 0 0.059999998659 0 0
          0 0 0
        </DataArray>
      </Points>
      <Cells>
        <DataArray type="Int64" Name="connectivity" format="ascii" RangeMin="0" RangeMax="100">
          0 1 2 3 4 5
          5 6 7 8 9 10
          11 12 13 14 15 16
          17 18 19 20 20 21
          22 23 24 25 26 27
          28 29 30 31 32 33
          34 19 27 35 36 37
          37 13 38 39 40 41
          42 43 44 45 46 7
          14 47 48 49 50 51
          52 38 53 54 23 55
          56 46 25 57 58 17
          59 60 3 28 61 62
          63 64 65 66 67 32
          68 69 70 71 72 73
          51 48 71 4 74 0
          75 30 54 44 8 53
          41 76 43 70 77 9
          78 79 39 75 55 77
          35 52 80 81 64 65
          66 2 16 80 82 83
          84 22 83 50 85 58
          86 36 49 87 33 88
          89 40 90 84 91 90
          92 42 93 67 94 86
          18 95 57 59 31 94
          12 96 88 63 69 85
          81 78 96 82 29 97
          45 15 10 92 79 91
          95 11 47 68 76 98
          87 56 73 26 99 89
          21 24 60 93 100 61
          1 99 97 72 62 74
          98 34
        </DataArray>
        <DataArray type="Int64" Name="offsets" format="ascii" RangeMin="2" RangeMax="200">
          2 4 6 8 10 12
          14 16 18 20 22 24
          26 28 30 32 34 36
          38 40 42 44 46 48
          50 52 54 56 58 60
          62 64 66 68 70 72
          74 76 78 80 82 84
          86 88 90 92 94 96
          98 100 102 104 106 108
          110 112 114 116 118 120
          122 124 126 128 130 132
          134 136 138 140 142 144
          146 148 150 152 154 156
          158 160 162 164 166 168
          170 172 174 176 178 180
          182 184 186 188 190 192
          194 196 198 200
        </DataArray>
        <DataArray type="UInt8" Name="types" format="ascii" RangeMin="4" RangeMax="4">
          4 4 4 4 4 4
          4 4 4 4 4 4
          4 4 4 4 4 4
          4 4 4 4 4 4
          4 4 4 4 4 4
          4 4 4 4 4 4
          4 4 4 4 4 4
          4 4 4 4 4 4
          4 4 4 4 4 4
          4 4 4 4 4 4
          4 4 4 4 4 4
          4 4 4 4 4 4
          4 4 4 4 4 4
          4 4 4 4 4 4
          4 4 4 4 4 4
          4 4 4 4 4 4
          4 4 4 4
        </DataArray>
      </Cells>
    </Piece>
  </UnstructuredGrid>
</VTKFile>
